<?xml version="1.0"?>
<VTKFile type="UnstructuredGrid"  version="0.1"  >
<UnstructuredGrid>
<Piece  NumberOfPoints="46" NumberOfCells="112">
<Points>
<DataArray  type="Float64"  NumberOfComponents="3"  format="ascii">0 0 0  0 0.5 0  0.2 0.5 0  0.2 0 0  0.3 0.5 0  0.3 0 0  0 0.09999999999977893 0  0 0.1999999999994874 0  0 0.2999999999994734 0  0 0.3999999999997367 0  0.09999999999973684 0.5 0  0.2 0.3999999999999999 0  0.2 0.3000000000006934 0  0.2 0.2000000000008322 0  0.2 0.1000000000004161 0  0.1000000000002739 0 0  0.2564727831922415 0.5 0  0.3 0.4499999999997918 0  0.3 0.3999999999999999 0  0.3 0.3500000000003467 0  0.3 0.3000000000006934 0  0.3 0.2500000000010293 0  0.3 0.2000000000008322 0  0.3 0.1500000000006241 0  0.3 0.1000000000004161 0  0.3 0.05000000000020799 0  0.2564727831924192 0 0  0.1045527348214307 0.2500000000003502 0  0.08660254037819143 0.1499999999996331 0  0.0897682536995946 0.349999999999605 0  0.1266317716837576 0.06574516661588702 0  0.1273210776627257 0.4344040574808292 0  0.05945423076921447 0.4406981558472242 0  0.05779820648080735 0.05798121337228947 0  0.2626794919244308 0.3200000000005537 0  0.2638756443470691 0.2790000000007801 0  0.256698729810915 0.2250000000009307 0  0.2626794919243026 0.1800000000007479 0  0.256698729810598 0.1250000000005201 0  0.2566987298110784 0.3750000000001732 0  0.2622516191244275 0.4270742898634857 0  0.2622516191243735 0.07292571013676097 0  0.271459799131207 0.4679040058088662 0  0.2380368402895752 0.4589956591344703 0  0.2714597991312452 0.03209599419117411 0  0.2380368402896076 0.04100434086567024 0  </DataArray>
</Points>
<Cells>
<DataArray  type="UInt32"  Name="connectivity"  format="ascii">0 6  0 15  0 33  1 9  1 10  1 32  2 10  2 11  2 16  2 31  2 43  3 14  3 15  3 26  3 30  3 45  4 16  4 17  4 42  5 25  5 26  5 44  6 7  6 28  6 33  7 8  7 27  7 28  8 9  8 27  8 29  9 29  9 32  10 31  10 32  11 12  11 29  11 31  11 39  11 40  11 43  12 13  12 27  12 29  12 34  12 35  12 36  12 39  13 14  13 27  13 28  13 36  13 37  13 38  14 28  14 30  14 38  14 41  14 45  15 30  15 33  16 42  16 43  17 18  17 40  17 42  18 19  18 39  18 40  19 20  19 34  19 39  20 21  20 34  20 35  21 22  21 35  21 36  22 23  22 36  22 37  23 24  23 37  23 38  24 25  24 38  24 41  25 41  25 44  26 44  26 45  27 28  27 29  28 30  28 33  29 31  29 32  30 33  31 32  34 35  34 39  35 36  36 37  37 38  38 41  39 40  40 42  40 43  41 44  41 45  42 43  44 45  </DataArray>
<DataArray  type="UInt32"  Name="offsets"  format="ascii">2 4 6 8 10 12 14 16 18 20 22 24 26 28 30 32 34 36 38 40 42 44 46 48 50 52 54 56 58 60 62 64 66 68 70 72 74 76 78 80 82 84 86 88 90 92 94 96 98 100 102 104 106 108 110 112 114 116 118 120 122 124 126 128 130 132 134 136 138 140 142 144 146 148 150 152 154 156 158 160 162 164 166 168 170 172 174 176 178 180 182 184 186 188 190 192 194 196 198 200 202 204 206 208 210 212 214 216 218 220 222 224 </DataArray>
<DataArray  type="UInt8"  Name="types"  format="ascii">3 3 3 3 3 3 3 3 3 3 3 3 3 3 3 3 3 3 3 3 3 3 3 3 3 3 3 3 3 3 3 3 3 3 3 3 3 3 3 3 3 3 3 3 3 3 3 3 3 3 3 3 3 3 3 3 3 3 3 3 3 3 3 3 3 3 3 3 3 3 3 3 3 3 3 3 3 3 3 3 3 3 3 3 3 3 3 3 3 3 3 3 3 3 3 3 3 3 3 3 3 3 3 3 3 3 3 3 3 3 3 3 </DataArray>
</Cells>
<CellData  Scalars="f">
<DataArray  type="Float64"  Name="f"  format="ascii">1 3 0 1 2 0 2 0 4 0 0 0 3 6 0 0 4 5 0 5 6 0 1 0 0 1 0 0 1 0 0 0 0 0 0 0 0 0 0 0 0 0 0 0 0 0 0 0 0 0 0 0 0 0 0 0 0 0 0 0 0 0 0 5 0 0 5 0 0 5 0 0 5 0 0 5 0 0 5 0 0 5 0 0 5 0 0 0 0 0 0 0 0 0 0 0 0 0 0 0 0 0 0 0 0 0 0 0 0 0 0 0 </DataArray>
</CellData>
</Piece>
</UnstructuredGrid>
</VTKFile>