<?xml version="1.0"?>
<VTKFile type="UnstructuredGrid"  version="0.1"  >
<UnstructuredGrid>
<Piece  NumberOfPoints="46" NumberOfCells="67">
<Points>
<DataArray  type="Float64"  NumberOfComponents="3"  format="ascii">0 0 0  0 0.5 0  0.2 0.5 0  0.2 0 0  0.3 0.5 0  0.3 0 0  0 0.09999999999977893 0  0 0.1999999999994874 0  0 0.2999999999994734 0  0 0.3999999999997367 0  0.09999999999973684 0.5 0  0.2 0.3999999999999999 0  0.2 0.3000000000006934 0  0.2 0.2000000000008322 0  0.2 0.1000000000004161 0  0.1000000000002739 0 0  0.2564727831922415 0.5 0  0.3 0.4499999999997918 0  0.3 0.3999999999999999 0  0.3 0.3500000000003467 0  0.3 0.3000000000006934 0  0.3 0.2500000000010293 0  0.3 0.2000000000008322 0  0.3 0.1500000000006241 0  0.3 0.1000000000004161 0  0.3 0.05000000000020799 0  0.2564727831924192 0 0  0.1045527348214307 0.2500000000003502 0  0.08660254037819143 0.1499999999996331 0  0.0897682536995946 0.349999999999605 0  0.1266317716837576 0.06574516661588702 0  0.1273210776627257 0.4344040574808292 0  0.05945423076921447 0.4406981558472242 0  0.05779820648080735 0.05798121337228947 0  0.2626794919244308 0.3200000000005537 0  0.2638756443470691 0.2790000000007801 0  0.256698729810915 0.2250000000009307 0  0.2626794919243026 0.1800000000007479 0  0.256698729810598 0.1250000000005201 0  0.2566987298110784 0.3750000000001732 0  0.2622516191244275 0.4270742898634857 0  0.2622516191243735 0.07292571013676097 0  0.271459799131207 0.4679040058088662 0  0.2380368402895752 0.4589956591344703 0  0.2714597991312452 0.03209599419117411 0  0.2380368402896076 0.04100434086567024 0  </DataArray>
</Points>
<Cells>
<DataArray  type="UInt32"  Name="connectivity"  format="ascii">7 8 27  13 14 28  11 12 29  8 27 29  7 27 28  13 27 28  12 27 29  14 28 30  11 29 31  8 9 29  12 13 27  6 7 28  3 15 30  3 14 30  2 11 31  2 10 31  9 29 32  6 28 33  29 31 32  28 30 33  1 9 32  1 10 32  0 15 33  0 6 33  15 30 33  10 31 32  2 11 43  3 14 45  12 34 39  13 37 38  12 35 36  11 12 39  12 13 36  13 14 38  2 16 43  3 26 45  4 17 42  5 25 44  21 22 36  17 18 40  22 23 37  20 21 35  19 20 34  18 19 39  23 24 38  24 25 41  17 40 42  25 41 44  4 16 42  5 26 44  11 40 43  14 41 45  40 42 43  41 44 45  21 35 36  18 39 40  20 34 35  19 34 39  22 36 37  23 37 38  24 38 41  16 42 43  26 44 45  12 34 35  11 39 40  13 36 37  14 38 41  </DataArray>
<DataArray  type="UInt32"  Name="offsets"  format="ascii">3 6 9 12 15 18 21 24 27 30 33 36 39 42 45 48 51 54 57 60 63 66 69 72 75 78 81 84 87 90 93 96 99 102 105 108 111 114 117 120 123 126 129 132 135 138 141 144 147 150 153 156 159 162 165 168 171 174 177 180 183 186 189 192 195 198 201 </DataArray>
<DataArray  type="UInt8"  Name="types"  format="ascii">5 5 5 5 5 5 5 5 5 5 5 5 5 5 5 5 5 5 5 5 5 5 5 5 5 5 5 5 5 5 5 5 5 5 5 5 5 5 5 5 5 5 5 5 5 5 5 5 5 5 5 5 5 5 5 5 5 5 5 5 5 5 5 5 5 5 5 </DataArray>
</Cells>
<CellData  Scalars="f">
<DataArray  type="Float64"  Name="f"  format="ascii">1 1 1 1 1 1 1 1 1 1 1 1 1 1 1 1 1 1 1 1 1 1 1 1 1 1 2 2 2 2 2 2 2 2 2 2 2 2 2 2 2 2 2 2 2 2 2 2 2 2 2 2 2 2 2 2 2 2 2 2 2 2 2 2 2 2 2 </DataArray>
</CellData>
</Piece>
</UnstructuredGrid>
</VTKFile>